# vtk DataFile Version 3.0
vtk output
ASCII
DATASET UNSTRUCTURED_GRID
POINTS 6166 double
1.000000e+00	1.260000e-03	0.0	1.000000e+00	-1.260000e-03	0.0	3.000000e+01	0.000000e+00	0.0	0.000000e+00	3.000000e+01	0.0	-3.000000e+01	0.000000e+00	0.0	0.000000e+00	-3.000000e+01	0.0	9.950500e-01	1.952590e-03	0.0	9.900994e-01	2.641093e-03	0.0	9.851482e-01	3.324453e-03	0.0	9.801965e-01	4.005063e-03	0.0	9.752443e-01	4.681514e-03	0.0	9.702915e-01	5.353698e-03	0.0	9.653381e-01	6.021791e-03	0.0	9.603842e-01	6.685876e-03	0.0	9.554298e-01	7.346507e-03	0.0	9.504749e-01	8.003004e-03	0.0	9.455195e-01	8.655984e-03	0.0	9.405636e-01	9.304964e-03	0.0	9.356073e-01	9.950593e-03	0.0	9.306504e-01	1.059216e-02	0.0	9.256931e-01	1.122975e-02	0.0	9.207352e-01	1.186373e-02	0.0	9.157769e-01	1.249407e-02	0.0	9.108182e-01	1.312129e-02	0.0	9.058590e-01	1.374493e-02	0.0	9.008994e-01	1.436481e-02	0.0	8.959394e-01	1.498144e-02	0.0	8.909789e-01	1.559445e-02	0.0	8.860180e-01	1.620378e-02	0.0	8.810566e-01	1.680987e-02	0.0	8.760949e-01	1.741248e-02	0.0	8.711327e-01	1.801158e-02	0.0	8.661702e-01	1.860759e-02	0.0	8.612072e-01	1.920025e-02	0.0	8.562438e-01	1.978931e-02	0.0	8.512801e-01	2.037520e-02	0.0	8.463159e-01	2.095786e-02	0.0	8.413514e-01	2.153699e-02	0.0	8.363864e-01	2.211259e-02	0.0	8.314211e-01	2.268499e-02	0.0	8.264554e-01	2.325411e-02	0.0	8.214893e-01	2.381990e-02	0.0	8.165229e-01	2.438268e-02	0.0	8.115561e-01	2.494241e-02	0.0	8.065889e-01	2.549882e-02	0.0	8.016214e-01	2.605167e-02	0.0	7.966535e-01	2.660132e-02	0.0	7.916852e-01	2.714778e-02	0.0	7.867166e-01	2.769094e-02	0.0	7.817477e-01	2.823078e-02	0.0	7.767784e-01	2.876761e-02	0.0	7.718087e-01	2.930131e-02	0.0	7.668387e-01	2.983164e-02	0.0	7.618683e-01	3.035843e-02	0.0	7.568976e-01	3.088194e-02	0.0	7.519266e-01	3.140224e-02	0.0	7.469552e-01	3.191925e-02	0.0	7.419834e-01	3.243294e-02	0.0	7.370114e-01	3.294360e-02	0.0	7.320390e-01	3.345117e-02	0.0	7.270663e-01	3.395544e-02	0.0	7.220932e-01	3.445615e-02	0.0	7.171198e-01	3.495336e-02	0.0	7.121460e-01	3.544732e-02	0.0	7.071719e-01	3.593791e-02	0.0	7.021975e-01	3.642504e-02	0.0	6.972228e-01	3.690864e-02	0.0	6.922477e-01	3.738902e-02	0.0	6.872723e-01	3.786606e-02	0.0	6.822966e-01	3.833957e-02	0.0	6.773205e-01	3.880936e-02	0.0	6.723440e-01	3.927554e-02	0.0	6.673673e-01	3.973828e-02	0.0	6.623902e-01	4.019748e-02	0.0	6.574128e-01	4.065300e-02	0.0	6.524351e-01	4.110480e-02	0.0	6.474570e-01	4.155318e-02	0.0	6.424786e-01	4.199803e-02	0.0	6.374999e-01	4.243911e-02	0.0	6.325208e-01	4.287618e-02	0.0	6.275414e-01	4.330922e-02	0.0	6.225617e-01	4.373852e-02	0.0	6.175816e-01	4.416395e-02	0.0	6.126012e-01	4.458538e-02	0.0	6.076204e-01	4.500264e-02	0.0	6.026393e-01	4.541593e-02	0.0	5.976579e-01	4.582533e-02	0.0	5.926761e-01	4.623065e-02	0.0	5.876940e-01	4.663172e-02	0.0	5.827116e-01	4.702836e-02	0.0	5.777288e-01	4.742091e-02	0.0	5.727457e-01	4.780931e-02	0.0	5.677623e-01	4.819333e-02	0.0	5.627785e-01	4.857272e-02	0.0	5.577943e-01	4.894735e-02	0.0	5.528098e-01	4.931755e-02	0.0	5.478250e-01	4.968322e-02	0.0	5.428399e-01	5.004416e-02	0.0	5.378543e-01	5.040019e-02	0.0	5.328685e-01	5.075125e-02	0.0	5.278823e-01	5.109765e-02	0.0	5.228957e-01	5.143920e-02	0.0	5.179089e-01	5.177566e-02	0.0	5.129216e-01	5.210680e-02	0.0	5.079340e-01	5.243264e-02	0.0	5.029461e-01	5.275347e-02	0.0	4.979579e-01	5.306903e-02	0.0	4.929693e-01	5.337904e-02	0.0	4.879804e-01	5.368324e-02	0.0	4.829911e-01	5.398173e-02	0.0	4.780014e-01	5.427469e-02	0.0	4.730115e-01	5.456190e-02	0.0	4.680212e-01	5.484310e-02	0.0	4.630305e-01	5.511805e-02	0.0	4.580396e-01	5.538700e-02	0.0	4.530483e-01	5.564997e-02	0.0	4.480567e-01	5.590667e-02	0.0	4.430647e-01	5.615681e-02	0.0	4.380724e-01	5.640014e-02	0.0	4.330798e-01	5.663698e-02	0.0	4.280869e-01	5.686723e-02	0.0	4.230937e-01	5.709061e-02	0.0	4.181002e-01	5.730683e-02	0.0	4.131063e-01	5.751569e-02	0.0	4.081122e-01	5.771751e-02	0.0	4.031178e-01	5.791210e-02	0.0	3.981230e-01	5.809916e-02	0.0	3.931280e-01	5.827839e-02	0.0	3.881328e-01	5.844975e-02	0.0	3.831372e-01	5.861347e-02	0.0	3.781414e-01	5.876923e-02	0.0	3.731454e-01	5.891666e-02	0.0	3.681491e-01	5.905540e-02	0.0	3.631526e-01	5.918558e-02	0.0	3.581559e-01	5.930724e-02	0.0	3.531589e-01	5.942002e-02	0.0	3.481618e-01	5.952358e-02	0.0	3.431645e-01	5.961763e-02	0.0	3.381670e-01	5.970242e-02	0.0	3.331693e-01	5.977770e-02	0.0	3.281715e-01	5.984312e-02	0.0	3.231736e-01	5.989830e-02	0.0	3.181756e-01	5.994313e-02	0.0	3.131775e-01	5.997770e-02	0.0	3.081794e-01	6.000167e-02	0.0	3.031812e-01	6.001466e-02	0.0	2.981830e-01	6.001633e-02	0.0	2.931847e-01	6.000681e-02	0.0	2.881866e-01	5.998581e-02	0.0	2.831885e-01	5.995296e-02	0.0	2.781905e-01	5.990781e-02	0.0	2.731926e-01	5.985034e-02	0.0	2.681949e-01	5.978040e-02	0.0	2.631973e-01	5.969749e-02	0.0	2.582001e-01	5.960106e-02	0.0	2.532031e-01	5.949073e-02	0.0	2.482064e-01	5.936646e-02	0.0	2.432101e-01	5.922791e-02	0.0	2.382142e-01	5.907469e-02	0.0	2.332189e-01	5.890645e-02	0.0	2.282240e-01	5.872300e-02	0.0	2.232298e-01	5.852386e-02	0.0	2.182362e-01	5.830842e-02	0.0	2.132434e-01	5.807611e-02	0.0	2.082514e-01	5.782668e-02	0.0	2.032603e-01	5.755966e-02	0.0	1.982703e-01	5.727453e-02	0.0	1.932813e-01	5.697072e-02	0.0	1.882935e-01	5.664778e-02	0.0	1.833071e-01	5.630510e-02	0.0	1.783221e-01	5.594194e-02	0.0	1.733387e-01	5.555760e-02	0.0	1.683570e-01	5.515147e-02	0.0	1.633772e-01	5.472279e-02	0.0	1.583995e-01	5.427070e-02	0.0	1.534240e-01	5.379428e-02	0.0	1.484510e-01	5.329273e-02	0.0	1.434807e-01	5.276520e-02	0.0	1.385134e-01	5.221065e-02	0.0	1.335493e-01	5.162786e-02	0.0	1.285887e-01	5.101577e-02	0.0	1.236320e-01	5.037317e-02	0.0	1.186795e-01	4.969850e-02	0.0	1.137317e-01	4.899020e-02	0.0	1.087892e-01	4.824654e-02	0.0	1.038524e-01	4.746533e-02	0.0	9.892201e-02	4.664478e-02	0.0	9.399867e-02	4.578293e-02	0.0	8.908327e-02	4.487694e-02	0.0	8.417674e-02	4.392411e-02	0.0	7.928016e-02	4.292144e-02	0.0	7.439490e-02	4.186493e-02	0.0	6.952249e-02	4.075073e-02	0.0	6.466483e-02	3.957391e-02	0.0	5.982421e-02	3.832889e-02	0.0	5.500326e-02	3.700981e-02	0.0	5.020553e-02	3.560863e-02	0.0	4.543527e-02	3.411667e-02	0.0	4.069820e-02	3.252256e-02	0.0	3.600152e-02	3.081319e-02	0.0	3.135519e-02	2.897150e-02	0.0	2.677272e-02	2.697639e-02	0.0	2.227365e-02	2.480004e-02	0.0	1.788670e-02	2.240617e-02	0.0	1.365627e-02	1.974620e-02	0.0	9.654519e-03	1.675453e-02	0.0	6.005841e-03	1.334354e-02	0.0	2.927076e-03	9.414996e-03	0.0	7.803026e-04	4.916516e-03	0.0	2.529797e-16	-2.801396e-09	0.0	7.803043e-04	-4.916521e-03	0.0	2.927079e-03	-9.415000e-03	0.0	6.005845e-03	-1.334355e-02	0.0	9.654523e-03	-1.675453e-02	0.0	1.365628e-02	-1.974621e-02	0.0	1.788671e-02	-2.240618e-02	0.0	2.227366e-02	-2.480004e-02	0.0	2.677273e-02	-2.697640e-02	0.0	3.135519e-02	-2.897150e-02	0.0	3.600153e-02	-3.081319e-02	0.0	4.069820e-02	-3.252257e-02	0.0	4.543528e-02	-3.411667e-02	0.0	5.020553e-02	-3.560863e-02	0.0	5.500326e-02	-3.700981e-02	0.0	5.982422e-02	-3.832889e-02	0.0	6.466484e-02	-3.957391e-02	0.0	6.952250e-02	-4.075074e-02	0.0	7.439491e-02	-4.186493e-02	0.0	7.928016e-02	-4.292144e-02	0.0	8.417675e-02	-4.392411e-02	0.0	8.908328e-02	-4.487694e-02	0.0	9.399868e-02	-4.578294e-02	0.0	9.892201e-02	-4.664478e-02	0.0	1.038524e-01	-4.746533e-02	0.0	1.087892e-01	-4.824654e-02	0.0	1.137317e-01	-4.899020e-02	0.0	1.186795e-01	-4.969850e-02	0.0	1.236320e-01	-5.037317e-02	0.0	1.285887e-01	-5.101577e-02	0.0	1.335493e-01	-5.162786e-02	0.0	1.385134e-01	-5.221065e-02	0.0	1.434807e-01	-5.276520e-02	0.0	1.484510e-01	-5.329273e-02	0.0	1.534240e-01	-5.379428e-02	0.0	1.583995e-01	-5.427070e-02	0.0	1.633772e-01	-5.472279e-02	0.0	1.683570e-01	-5.515147e-02	0.0	1.733387e-01	-5.555760e-02	0.0	1.783221e-01	-5.594194e-02	0.0	1.833071e-01	-5.630510e-02	0.0	1.882935e-01	-5.664778e-02	0.0	1.932813e-01	-5.697072e-02	0.0	1.982703e-01	-5.727453e-02	0.0	2.032603e-01	-5.755966e-02	0.0	2.082514e-01	-5.782668e-02	0.0	2.132434e-01	-5.807611e-02	0.0	2.182362e-01	-5.830842e-02	0.0	2.232298e-01	-5.852386e-02	0.0	2.282240e-01	-5.872300e-02	0.0	2.332189e-01	-5.890645e-02	0.0	2.382142e-01	-5.907469e-02	0.0	2.432101e-01	-5.922791e-02	0.0	2.482064e-01	-5.936646e-02	0.0	2.532031e-01	-5.949073e-02	0.0	2.582001e-01	-5.960106e-02	0.0	2.631973e-01	-5.969749e-02	0.0	2.681949e-01	-5.978040e-02	0.0	2.731926e-01	-5.985034e-02	0.0	2.781905e-01	-5.990781e-02	0.0	2.831885e-01	-5.995296e-02	0.0	2.881866e-01	-5.998581e-02	0.0	2.931848e-01	-6.000681e-02	0.0	2.981830e-01	-6.001633e-02	0.0	3.031812e-01	-6.001466e-02	0.0	3.081794e-01	-6.000167e-02	0.0	3.131775e-01	-5.997770e-02	0.0	3.181756e-01	-5.994313e-02	0.0	3.231736e-01	-5.989830e-02	0.0	3.281715e-01	-5.984312e-02	0.0	3.331693e-01	-5.977770e-02	0.0	3.381670e-01	-5.970242e-02	0.0	3.431645e-01	-5.961763e-02	0.0	3.481618e-01	-5.952358e-02	0.0	3.531589e-01	-5.942002e-02	0.0	3.581559e-01	-5.930724e-02	0.0	3.631526e-01	-5.918558e-02	0.0	3.681491e-01	-5.905540e-02	0.0	3.731454e-01	-5.891666e-02	0.0	3.781415e-01	-5.876923e-02	0.0	3.831372e-01	-5.861347e-02	0.0	3.881328e-01	-5.844975e-02	0.0	3.931280e-01	-5.827839e-02	0.0	3.981230e-01	-5.809916e-02	0.0	4.031178e-01	-5.791210e-02	0.0	4.081122e-01	-5.771751e-02	0.0	4.131063e-01	-5.751569e-02	0.0	4.181002e-01	-5.730682e-02	0.0	4.230937e-01	-5.709061e-02	0.0	4.280869e-01	-5.686723e-02	0.0	4.330798e-01	-5.663698e-02	0.0	4.380724e-01	-5.640014e-02	0.0	4.430647e-01	-5.615681e-02	0.0	4.480567e-01	-5.590667e-02	0.0	4.530483e-01	-5.564997e-02	0.0	4.580396e-01	-5.538700e-02	0.0	4.630305e-01	-5.511805e-02	0.0	4.680212e-01	-5.484310e-02	0.0	4.730115e-01	-5.456190e-02	0.0	4.780014e-01	-5.427469e-02	0.0	4.829911e-01	-5.398173e-02	0.0	4.879804e-01	-5.368324e-02	0.0	4.929693e-01	-5.337904e-02	0.0	4.979579e-01	-5.306903e-02	0.0	5.029461e-01	-5.275347e-02	0.0	5.079341e-01	-5.243264e-02	0.0	5.129216e-01	-5.210680e-02	0.0	5.179089e-01	-5.177566e-02	0.0	5.228957e-01	-5.143920e-02	0.0	5.278823e-01	-5.109765e-02	0.0	5.328685e-01	-5.075125e-02	0.0	5.378543e-01	-5.040019e-02	0.0	5.428399e-01	-5.004416e-02	0.0	5.478250e-01	-4.968322e-02	0.0	5.528098e-01	-4.931755e-02	0.0	5.577943e-01	-4.894735e-02	0.0	5.627785e-01	-4.857272e-02	0.0	5.677623e-0
[...]
POINT_DATA 6166

SCALARS Density double 1
LOOKUP_TABLE default
1.154976e+00	1.167687e+00	1.223209e+00	1.224516e+00	1.225255e+00	1.225977e+00	1.300592e+00	1.289306e+00	1.281018e+00	1.274057e+00	1.267713e+00	1.262659e+00	1.257830e+00	1.253203e+00	1.248395e+00	1.243971e+00	1.239801e+00	1.235978e+00	1.232472e+00	1.229276e+00	1.226027e+00	1.223099e+00	1.220163e+00	1.216911e+00	1.214602e+00	1.211737e+00	1.208958e+00	1.206310e+00	1.203797e+00	1.201451e+00	1.198993e+00	1.196630e+00	1.194315e+00	1.191854e+00	1.189553e+00	1.187221e+00	1.184798e+00	1.182353e+00	1.180678e+00	1.178331e+00	1.175941e+00	1.173492e+00	1.171158e+00	1.169173e+00	1.167083e+00	1.165044e+00	1.163003e+00	1.161115e+00	1.159361e+00	1.157472e+00	1.155551e+00	1.153499e+00	1.151648e+00	1.149758e+00	1.147975e+00	1.146140e+00	1.144404e+00	1.142483e+00	1.140615e+00	1.138774e+00	1.137195e+00	1.135445e+00	1.133781e+00	1.132050e+00	1.130316e+00	1.128570e+00	1.127038e+00	1.125385e+00	1.124003e+00	1.122446e+00	1.120660e+00	1.119080e+00	1.117678e+00	1.116185e+00	1.114713e+00	1.113039e+00	1.111419e+00	1.109684e+00	1.108075e+00	1.106319e+00	1.104508e+00	1.102205e+00	1.099466e+00	1.095393e+00	1.089025e+00	1.077389e+00	1.057527e+00	1.027178e+00	9.932310e-01	9.328977e-01	8.790088e-01	8.488739e-01	8.402928e-01	8.359493e-01	8.324892e-01	8.299896e-01	8.278323e-01	8.256090e-01	8.246513e-01	8.228482e-01	8.212598e-01	8.203959e-01	8.195875e-01	8.189504e-01	8.182725e-01	8.176652e-01	8.172980e-01	8.171645e-01	8.173531e-01	8.174641e-01	8.174393e-01	8.177138e-01	8.179855e-01	8.181007e-01	8.182507e-01	8.184122e-01	8.186561e-01	8.189243e-01	8.193434e-01	8.197577e-01	8.203484e-01	8.209145e-01	8.213927e-01	8.219689e-01	8.224864e-01	8.230612e-01	8.238065e-01	8.247372e-01	8.260229e-01	8.274656e-01	8.285572e-01	8.296053e-01	8.308630e-01	8.317190e-01	8.326362e-01	8.336326e-01	8.343618e-01	8.358011e-01	8.368782e-01	8.379520e-01	8.392556e-01	8.402821e-01	8.413169e-01	8.422729e-01	8.431538e-01	8.440525e-01	8.451304e-01	8.463113e-01	8.473764e-01	8.485096e-01	8.498368e-01	8.512500e-01	8.526488e-01	8.548404e-01	8.570658e-01	8.585815e-01	8.610250e-01	8.635598e-01	8.654184e-01	8.677731e-01	8.707594e-01	8.728116e-01	8.756860e-01	8.780486e-01	8.805093e-01	8.845518e-01	8.869384e-01	8.893454e-01	8.921285e-01	8.941003e-01	8.969159e-01	9.000090e-01	9.035473e-01	9.084469e-01	9.128813e-01	9.159666e-01	9.191485e-01	9.224573e-01	9.258222e-01	9.298330e-01	9.334149e-01	9.368166e-01	9.413964e-01	9.473038e-01	9.534654e-01	9.597939e-01	9.664886e-01	9.725463e-01	9.779829e-01	9.857410e-01	9.937959e-01	1.002705e+00	1.012868e+00	1.024838e+00	1.036298e+00	1.050749e+00	1.067680e+00	1.084582e+00	1.102397e+00	1.119818e+00	1.137871e+00	1.168772e+00	1.197622e+00	1.241048e+00	1.298034e+00	1.359586e+00	1.453920e+00	1.554074e+00	1.640911e+00	1.673352e+00	1.645029e+00	1.588508e+00	1.525360e+00	1.456667e+00	1.394905e+00	1.350097e+00	1.312655e+00	1.281034e+00	1.252732e+00	1.232342e+00	1.212827e+00	1.199315e+00	1.186048e+00	1.169341e+00	1.157187e+00	1.148312e+00	1.136960e+00	1.125996e+00	1.119169e+00	1.111202e+00	1.101897e+00	1.095536e+00	1.088539e+00	1.083209e+00	1.077176e+00	1.071673e+00	1.066507e+00	1.061964e+00	1.056739e+00	1.051777e+00	1.048189e+00	1.043569e+00	1.039923e+00	1.035707e+00	1.032064e+00	1.028555e+00	1.024716e+00	1.021438e+00	1.019315e+00	1.016835e+00	1.015025e+00	1.013165e+00	1.011537e+00	1.009936e+00	1.008185e+00	1.006809e+00	1.005760e+00	1.003202e+00	1.001990e+00	1.000895e+00	9.989512e-01	9.976066e-01	9.961131e-01	9.948789e-01	9.938738e-01	9.926422e-01	9.919103e-01	9.913736e-01	9.901549e-01	9.896556e-01	9.888753e-01	9.885042e-01	9.884191e-01	9.884162e-01	9.884336e-01	9.884512e-01	9.887912e-01	9.895590e-01	9.911551e-01	9.920572e-01	9.921007e-01	9.944764e-01	9.969371e-01	9.980806e-01	9.997865e-01	1.002040e+00	1.003130e+00	1.005536e+00	1.008680e+00	1.010777e+00	1.013310e+00	1.015614e+00	1.017745e+00	1.020391e+00	1.022951e+00	1.024975e+00	1.027858e+00	1.031158e+00	1.033574e+00	1.035831e+00	1.038615e+00	1.040884e+00	1.043138e+00	1.045627e+00	1.047997e+00	1.050222e+00	1.052229e+00	1.054475e+00	1.056629e+00	1.058846e+00	1.061026e+00	1.063321e+00	1.065511e+00	1.067798e+00	1.070295e+00	1.072605e+00	1.074541e+00	1.076444e+00	1.078543e+00	1.080831e+00	1.082923e+00	1.084645e+00	1.086542e+00	1.088928e+00	1.091080e+00	1.092766e+00	1.094402e+00	1.096227e+00	1.097968e+00	1.099711e+00	1.101476e+00	1.103438e+00	1.105377e+00	1.107556e+00	1.109542e+00	1.111446e+00	1.113587e+00	1.115350e+00	1.116284e+00	1.118385e+00	1.120463e+00	1.121936e+00	1.123853e+00	1.125934e+00	1.127420e+00	1.129399e+00	1.130786e+00	1.132598e+00	1.134412e+00	1.135975e+00	1.137455e+00	1.139372e+00	1.141253e+00	1.143012e+00	1.144900e+00	1.146546e+00	1.148301e+00	1.149826e+00	1.151517e+00	1.153454e+00	1.155177e+00	1.156609e+00	1.158392e+00	1.160025e+00	1.161674e+00	1.163452e+00	1.165174e+00	1.167275e+00	1.169138e+00	1.171102e+00	1.173113e+00	1.174924e+00	1.176518e+00	1.178490e+00	1.180430e+00	1.182295e+00	1.184065e+00	1.185930e+00	1.187702e+00	1.189775e+00	1.192084e+00	1.194097e+00	1.195922e+00	1.198162e+00	1.200226e+00	1.202546e+00	1.204758e+00	1.207072e+00	1.209246e+00	1.211593e+00	1.214058e+00	1.216627e+00	1.219235e+00	1.221477e+00	1.224077e+00	1.226770e+00	1.229702e+00	1.232497e+00	1.235316e+00	1.238170e+00	1.241552e+00	1.245225e+00	1.248655e+00	1.252510e+00	1.257411e+00	1.260197e+00	1.264930e+00	1.270245e+00	1.275594e+00	1.281279e+00	1.287587e+00	1.295023e+00	1.304682e+00	1.223290e+00	1.223752e+00	1.224240e+00	1.224513e+00	1.224609e+00	1.224622e+00	1.224605e+00	1.224566e+00	1.224521e+00	1.224472e+00	1.224428e+00	1.224373e+00	1.224358e+00	1.224381e+00	1.224438e+00	1.224652e+00	1.224763e+00	1.224896e+00	1.225003e+00	1.225072e+00	1.225129e+00	1.225163e+00	1.225188e+00	1.225207e+00	1.225216e+00	1.225224e+00	1.225231e+00	1.225235e+00	1.225243e+00	1.225251e+00	1.225265e+00	1.225278e+00	1.225292e+00	1.225313e+00	1.225331e+00	1.225356e+00	1.225390e+00	1.225435e+00	1.225491e+00	1.225547e+00	1.225617e+00	1.225691e+00	1.225772e+00	1.225866e+00	1.225947e+00	1.225971e+00	1.225931e+00	1.225863e+00	1.225784e+00	1.225696e+00	1.225597e+00	1.225497e+00	1.225426e+00	1.225341e+00	1.225247e+00	1.225149e+00	1.225010e+00	1.224781e+00	1.224333e+00	1.223676e+00	1.225437e+00	1.223571e+00	1.226138e+00	1.226568e+00	1.227712e+00	1.226386e+00	1.223584e+00	1.226881e+00	1.230166e+00	1.229142e+00	1.225461e+00	1.215317e+00	1.223329e+00	1.224683e+00	1.234912e+00	1.212799e+00	1.243054e+00	1.241506e+00	1.225221e+00	1.200355e+00	1.227275e+00	1.243739e+00	1.173199e+00	1.206359e+00	1.185243e+00	1.229382e+00	1.248157e+00	1.269074e+00	1.223477e+00	1.139993e+00	1.186324e+00	1.242668e+00	1.222252e+00	1.274253e+00	1.205855e+00	1.084700e+00	1.132168e+00	1.179831e+00	1.223869e+00	1.220083e+00	1.305005e+00	1.233015e+00	1.216929e+00	1.148734e+00	9.781504e-01	1.140810e+00	1.287567e+00	1.101267e+00	1.073087e+00	1.220032e+00	1.105994e+00	1.143345e+00	1.313589e+00	1.351490e+00	1.225470e+00	1.175306e+00	1.203982e+00	1.237887e+00	1.146073e+00	1.171512e+00	1.022395e+00	8.932688e-01	9.743936e-01	1.240935e+00	1.277908e+00	1.086716e+00	1.262528e+00	1.238359e+00	1.253205e+00	1.353301e+00	1.067653e+00	1.042941e+00	1.206755e+00	1.047435e+00	1.074460e+00	1.226136e+00	1.141011e+00	1.044585e+00	8.582431e-01	1.224365e+00	1.174510e+00	8.567213e-01	8.961017e-01	9.297139e-01	1.355461e+00	1.222891e+00	1.237124e+00	1.271858e+00	1.116001e+00	9.766992e-01	1.064073e+00	1.091680e+00	1.197945e+00	1.370244e+00	1.130350e+00	1.149020e+00	1.428456e+00	1.082568e+00	1.136879e+00	1.227255e+00	1.230567e+00	1.150725e+00	1.241970e+00	1.434368e+00	1.227801e+00	1.164159e+00	1.185191e+00	1.201736e+00	1.223647e+00	1.028568e+00	1.194351e+00	1.017280e+00	1.222038e+00	1.225929e+00	1.226208e+00	1.244507e+00	1.131240e+00	1.224932e+00	8.557741e-01	1.117087e+00	1.212702e+00	1.045083e+00	1.022091e+00	1.223932e+00	1.224489e+00	1.189367e+00	8.514453e-01	1.273560e+00	1.214829e+00	8.646478e-01	8.769910e-01	1.245523e+00	1.222867e+00	1.051066e+00	1.035017e+00	1.227031e+00	1.225473e+00	1.260945e+00	1.225454e+00	8.359100e-01	8.368381e-01	8.943455e-01	9.220458e-01	1.098475e+00	1.109875e+00	1.226822e+00	1.231675e+00	1.225726e+00	1.232018e+00	1.228673e+00	1.174563e+00	1.159772e+00	1.244784e+00	1.380579e+00	1.071741e+00	1.134745e+00	1.225122e+00	1.223624e+00	1.229507e+00	1.256819e+00	9.773499e-01	8.370196e-01	1.299780e+00	1.018584e+00	1.225927e+00	1.009197e+00	1.070065e+00	1.076823e+00	1.030530e+00	1.058302e+00	1.219754e+00	1.227092e+00	1.205537e+00	1.223911e+00	1.264493e+00	1.256898e+00	1.225629e+00	1.137900e+00	1.145920e+00	1.169863e+00	1.200537e+00	1.222174e+00	1.150327e+00	8.384984e-01	1.293079e+00	1.007014e+00	1.226650e+00	1.226732e+00	1.042605e+00	1.188541e+00	1.469932e+00	1.224967e+00	1.209760e+00	1.265943e+00	1.228275e+00	1.225371e+00	9.332444e-01	1.220940e+00	1.285172e+00	1.227175e+00	1.225038e+00	1.224723e+00	1.123534e+00	1.086192e+00	1.225216e+00	1.211848e+00	1.408838e+00	1.158617e+00	1.222058e+00	1.228087e+00	1.123413e+00	1.140251e+00	1.277172e+00	1.281485e+00	1.178461e+00	1.120609e+00	1.196744e+00	1.229904e+00	1.240235e+00	1.254598e+00	1.226180e+00	8.577109e-01	1.227632e+00	1.183981e+00	8.340264e-01	1.226277e+00	1.221436e+00	1.127812e+00	8.480106e-01	1.226168e+00	1.250273e+00	1.236901e+00	1.232200e+00	1.258000e+00	1.225675e+00	1.005737e+00	1.218745e+00	1.217431e+00	1.249165e+00	1.225394e+00	1.126668e+00	1.240784e+00	1.200141e+00	1.222994e+00	1.223745e+00	8.266606e-01	1.224126e+00	1.288210e+00	1.267159e+00	1.080082e+00	1.225331e+00	1.220229e+00	1.114201e+00	1.224381e+00	1.019883e+00	1.157565e+00	1.005912e+00	8.596685e-01	1.164132e+00	1.226027e+00	1.226345e+00	1.103739e+00	1.016896e+00	1.034800e+00	1.112840e+00	1.046103e+00	1.001450e+00	1.153167e+00	1.197614e+00	1.227694e+00	1.188920e+00	1.197081e+00	1.225964e+00	1.225639e+00	1.217312e+00	1.156214e+00	8.713368e-01	1.075045e+00	1.300247e+00	8.929453e-01	1.044235e+00	1.294352e+00	1.221671e+00	1.239837e+00	8.279038e-01	1.099392e+00	1.228210e+00	1.203626e+00	1.076167e+00	1.138091e+00	1.224080e+00	1.241494e+00	1.218270e+00	1.128458e+00	1.161957e+00	1.109824e+00	1.223354e+00	9.674270e-01	1.113498e+00	1.059066e+00	1.231282e+00	1.232119e+00	1.222099e+00	9.907399e-01	8.269604e-01	1.286252e+00	1.234147e+00	9.408493e-01	8.482925e-01	1.225346e+00	8.380610e-01	1.226383e+00	1.139391e+00	1.298650e+00	1.221855e+00	1.225682e+00	1.265419e+00	1.283914e+00	1.224346e+00	8.592920e-01	1.359373e+00	1.235159e+00	1.235807e+00	1.229498e+00	1.182150e+00	1.162561e+00	1.087960e+00	1.203357e+00	1.228774e+00	1.225347e+00	1.240056e+00	1.231935e+00	1.225500e+00	1.168180e+00	1.153173e+00	1.059844e+00	1.228287e+00	1.201153e+00	1.311911e+00	1.235802e+00	1.024798e+00	1.158107e+00	1.223555e+00	1.091161e+00	1.003809e+00	1.224781e+00	1.190674e+00	1.158382e+00	1.308955e+00	1.224466e+00	1.215933e+00	1.224017e+00	1.540570e+00	1.538353e+00	1.223040e+00	1.225454e+00	1.224124e+00	1.198656e+00	1.222370e+00	9.361252e-01	1.259929e+00	1.226492e+00	1.114454e+00	1.232284e+00	1.173796e+00	8.828913e-01	1.266507e+00	9.062144e-01	1.226667e+00	1.225658e+00	1.222778e+00	1.226091e+00	1.140007e+00	1.004530e+00	1.206405e+00	1.280295e+00	1.195523e+00	1.126246e+00	1.306490e+00	1.162296e+00	1.000517e+00	1.007358e+00	1.144036e+00	1.133085e+00	1.043426e+00	1.150589e+00	8.303444e-01	1.223386e+00	8.992764e-01	1.105736e+00	1.356731e+00	1.182860e+00	1.171213e+00	1.224715e+00	1.225886e+00	1.203309e+00	1.189362e+00	8.344231e-01	1.248576e+00	1.211606e+00	1.227290e+00	1.226824e+00	1.225058e+00	1.225243e+00	1.064567e+00	1.009406e+00	1.225240e+00	9.993605e-01	1.093519e+00	1.106205e+00	1.059779e+00	8.754128e-01	1.190407e+00	1.228383e+00	1.227309e+00	1.254841e+00	1.021726e+00	1.269295e+00	1.224062e+00	1.225923e+00	8.813827e-01	8.246235e-01	1.311057e+00	1.233290e+00	1.225480e+00	1.225025e+00	1.130759e+00	1.116882e+00	1.220887e+00	1.216888e+00	1.066822e+00	1.232754e+00	1.039668e+00	1.102869e+00	1.224121e+00	1.223272e+00	1.049554e+00	1.199689e+00	1.160804e+00	9.970189e-01	1.227506e+00	1.141831e+00	1.221486e+00	1.104739e+00	1.223204e+00	8.262258e-01	1.225325e+00	1.224296e+00	1.230346e+00	1.182658e+00	1.208534e+00	1.157064e+00	1.194039e+00	1.322182e+00	1.176099e+00	9.672960e-01	1.226407e+00	8.238421e-01	1.222875e+00	1.195508e+00	1.210223e+00	1.223999e+00	1.174907e+00	1.167686e+00	1.208212e+00	1.062012e+00	9.170483e-01	1.227159e+00	8.932850e-01	1.179466e+00	1.254068e+00	1.286259e+00	1.225291e+00	1.014970e+00	1.227760e+00	1.229883e+00	1.226202e+00	1.122191e+00	1.116926e+00	1.212055e+00	1.225783e+00	1.263081e+00	1.052906e+00	1.252303e+00	1.043887e+00	1.235377e+00	1.118139e+00	1.162057e+00	1.187184e+00	1.105600e+00	1.225704e+00	1.138978e+00	1.305645e+00	1.120715e+00	1.255332e+00	1.222533e+00	1.028815e+00	1.204961e+00	1.158539e+00	1.180615e+00	1.252356e+00	1.107399e+00	1.225911e+00	1.000153e+00	1.224908e+00	1.284469e+00	1.226998e+00	1.226440e+00	1.123685e+00	1.249823e+00	1.225845e+00	1.226659e+00	1.226537e+00	1.124007e+00	1.129781e+00	1.225417e+00	1.226590e+00	1.233716e+00	1.091688e+00	1.172847e+00	1.223791e+00	1.146382e+00	1.220663e+00	1.162038e+00	1.176698e+00	1.228006e+00	1.212470e+00	1.120391e+00	1.224306e+00	1.219856e+00	1.479019e+00	8.485599e-01	1.239273e+00	1.213041e+00	1.227153e+00	1.101354e+00	1.226652e+00	8.319993e-01	1.221208e+00	1.296459e+00	1.251393e+00	1.222757e+00	9.332985e-01	1.224126e+00	1.166398e+00	1.079653e+00	1.162369e+00	1.225917e+00	1.087449e+00	1.106515e+00	1.320952e+00	1.297945e+00	1.179709e+00	1.071982e+00	1.223718e+00	1.224382e+00	1.226059e+00	1.190437e+00	1.286385e+00	8.416112e-01	1.218993e+00	1.224530e+00	1.002126e+00	1.223935e+00	1.224253e+00	1.225298e+00	1.278882e+00	8.530953e-01	1.018147e+00	1.153319e+00	1.100013e+00	1.026292e+00	1.032758e+00	1.193004e+00	1.225826e+00	1.118296e+00	1.136945e+00	8.597091e-01	1.225053e+00	1.228889e+00	1.219336e+00	1.226447e+00	1.095271e+00	8.266993e-01	1.270258e+00	1.145261e+00	1.039178e+00	1.225588e+00	1.303303e+00	1.459273e+00	1.229431e+00	9.074775e-01	1.071413e+00	8.426920e-01	1.233873e+00	1.224410e+00	1.255397e+00	1.242893e+00	1.026490e+00	1.210104e+00	1.217866e+00	1.223397e+00	1.224207e+00	1.050539e+00	9.406655e-01	1.232851e+00	1.233319e+00	1.229824e+00	1.213032e+00	1.227214e+00	1.156670e+00	1.334928e+00	1.224915e+00	1.229568e+00	1.213844e+00	1.305338e+00	1.225243e+00	1.220934e+00	1.249016e+00	1.160908e+00	1.233738e+00	1.227422e+00	1.230074e+00	1.250096e+00	1.225335e+00	1.229568e+00	1.226351e+00	1.227605e+00	1.195530e+00	1.140483e+00	1.064590e+00	8.498714e-01	1.223109e+00	1.037173e+00	8.506727e-01	1.294366e+00	1.197615e+00	9.407974e-01	1.084873e+00	1.093338e+00	1.233275e+00	1.085407e+00	1.226232e+00	8.763674e-01	1.164365e+00	1.248042e+00	1.225805e+00	1.137096e+00	1.224419e+00	1.223285e+00	1.178779e+00	1.053066e+00	1.035933e+00	1.045101e+00	1.420995e+00	1.280228e+00	1.225926e+00	1.225021e+00	1.223312e+00	8.364140e-01	1.224179e+00	1.226377e+00	1.225892e+00	1.260792e+00	1.226506e+00	1.183255e+00	1.171509e+00	1.176033e+00	8.220147e-01	1.013680e+00	1.262527e+00	9.187508e-01	1.143345e+00	1.220679e+00	9.038389e-01	1.242409e+00	1.020304e+00	1.221375e+00	1.221822e+00	8.368545e-01	1.226702e+00	1.222504e+00	1.226603e+00	1.227518e+00	1.225571e+00	1.253590e+00	1.258556e+00	1.224634e+00	1.153069e+00	1.226183e+00	1.195070e+00	8.877096e-01	1.188829e+00	1.122939e+00	1.061525e+00	1.223515e+00	1.179495e+00	1.102129e+00	1.232237e+00	8.746957e-01	8.657844e-01	1.062683e+00	1.067977e+00	1.083069e+00	1.225423e+00	1.218447e+00	1.225178e+00	1.259331e+00	1.134813e+00	1.121438e+00	1.218968e+00	1.234986e+00	1.000096e+00	1.006145e+00	1.226858e+00	1.109250e+00	1.125312e+00	1.128694e+00	1.182435e+00	1.324696e+00	1.146300e+00	1.224595e+00	1.167307e+00	1.225573e+00	1.225558e+00	1.223707e+00	1.226703e+00	1.390688e+00	1.225866e+00	1.185351e+00	1.007870e+00	1.060108e+00	1.170228e+00	1.280082e+00	1.256289e+00	1.233925e+00	9.973377e-01	1.029838e+00	1.229958e+00	1.108922e+00	1.014617e+00	1.061956e+00	1.226382e+00	1.102788e+00	1.081092e+00	8.221082e-01	1.222081e+00	1.125548e+00	1.225090e+00	1.238999e+00	1.207129e+00	1.069523e+00	1.060750e+00	1.244915e+00	1.229179e+00	1.225499e+00	1.217255e+00	1.052033e+00	1.111641e+00	1.028428e+00	1.019207e+00	1.058609e+00	1.223272e+00	1.202898e+00	8.473564e-01	1.226500e+00	9.938335e-01	1.229215e+00	1.225989e+00	1.222219e+00	1.241171e+00	1.227525e+00	1.227975e+00	1.231084e+00	1.104060e+00	9.498361e-01	1.127993e+00	1.192523e+00	1.230234e+00	1.202459e+00	1.226399e+00	1.224541e+00	1.109344e+00	1.226055e+00	1.050225e+00	8.244863e-01	1.152570e+00	1.160472e+00	1.170868e+00	1.221924e+00	1.236064e+00	1.333275e+00	1.198384e+00	1.157157e+00	1.139359e+00	1.225230e+00	1.217694e+00	1.288426e+00	1.225737e+00	1.141591e+00	8.706029e-01	8.789513e-01	9.689156e-01	1.094765e+00	1.237589e+00	9.479569e-01	8.216813e-01	1.015621e+00	8.805796e-01	1.204737e+00	1.225278e+00	1.199653e+00	1.141759e+00	1.020564e+00	1.245610e+00	1.232494e+00	9.175873e-01	1.227021e+00	8.309187e-01	8.270153e-01	1.217577e+00	1.053458e+00	1.201672e+00	1.112596e+00	1.110577e+00	1.243963e+00	8.920272e-01	1.263243e+00	1.234666e+00	1.390643e+00	9.321100e-01	1.225151e+00	1.164473e+00	1.170118e+00	1.152714e+00	1.226657e+00	1.159317e+00	1.270834e+00	1.185724e+00	1.222461e+00	8.434982e-01	1.255389e+00	1.100224e+00	1.242220e+00	1.049810e+00	1.224022e+00	1.030367e+00	8.278487e-01	1.133367e+00	1.016061e+00	1.105215e+00	1.226200e+00	1.223862e+00	1.213743e+00	1.095988e+00	9.945775e-01	1.270344e+00	1.228846e+00	1.237100e+00	1.225573e+00	9.944748e-01	8.721835e-01	1.230797e+00	1.228177e+00	1.229542e+00	9.942475e-01	1.240459e+00	1.183385e+00	1.206999e+00	1.067426e+00	1.074525e+00	1.154131e+00	1.043167e+00	8.535495e-01	1.112977e+00	1.224275e+00	1.328314e+00	1.229790e+00	9.098365e-01	1.211829e+00	1.225244e+00	1.212454e+00	1.242701e+00	1.225874e+00	1.053293e+00	1.184020e+00	1.083949e+00	1.198911e+00	1.234680e+00	1.196672e+00	1.130327e+00	1.204788e+00	1.174128e+00	1.174325e+00	1.285612e+00	1.229941e+00	1.137570e+00	1.148795e+00	1.212162e+00	1.228002e+00	8.226755e-01	1.270278e+00	1.109090e+00	1.225438e+00	1.204776e+00	1.226122e+00	8.228015e-01	8.668451e-01	8.590010e-01	1.340044e+00	1.226038e+00	1.224295e+00	1.205172e+00	1.196097e+00	1.223277e+00	1.190618e+00	1.211932e+00	1.177615e+00	1.277310e+00	1.270649e+00	1.215774e+00	1.325814e+00	9.936676e-01	1.029586e+00	1.200424e+00	8.393842e-01	8.502031e-01	1.293950e+00	1.274639e+00	1.223335e+00	9.279144e-01	1.228644e+00	1.120433e+00	1.248643e+00	1.226796e+00	1.152709e+00	1.267529e+00	1.225004e+00	1.225639e+00	1.225340e+00	1.228552e+00	1.156523e+00	1.231222e+00	1.222124e+00	1.244771e+00	8.443957e-01	1.231140e+00	1.164386e+00	1.223221e+00	1.220952e+00	1.268241e+00	1.119705e+00	1.295150e+00	1.230012e+00	1.146463e+00	1.130215e+00	1.234017e+00	1.225887e+00	1.184831e+00	1.279935e+00	1.211546e+00	1.280212e+00	1.223652e+00	9.011449e-01	1.225416e+00	1.039718e+00	8.428835e-01	1.224893e+00	1.061759e+00	1.005940e+00	1.225494e+00	1.225924e+00	1.260724e+00	1.223772e+00	1.226049e+00	1.087982e+00	1.249090e+00	1.209939e+00	1.133864e+00	1.223473e+00	1.187851e+00	1.218379e+00	1.224411e+00	1.226339e+00	1.177906e+00	1.037458e+00	1.573194e+00	1.244606e+00	1.224871e+00	1.224098e+00	1.225210e+00	1.134201e+00	1.139709e+00	1.224446e+00	1.229404e+00	1.224175e+00	1.332725e+00	1.276350e+00	1.148264e+00	1.170088e+00	1.325632e+00	1.166817e+00	1.225734e+00	1.224462e+00	8.828899e-01	1.225182e+00	8.753165e-01	1.223990e+00	1.225089e+00	1.188182e+00	1.225391e+00	1.166617e+00	1.179788e+00	1.228772e+00	1.225344e+00	1.227689e+00	1.309902e+00	9.261904e-01	1.374502e+00	1.076855e+00	1.220930e+00	1.221653e+00	1.270728e+00	1.024005e+00	1.111256e+00	1.010297e+00	1.099038e+00	1.223286e+00	1.223422e+00	1.216691e+00	1.157266e+00	8.792665e-01	1.236480e+00	1.266539e+00	1.220084e+00	1.092155e+00	1.226638e+00	1.075513e+00	1.228091e+00	1.230603e+00	9.710715e-01	1.214344e+00	1.232641e+00	1.056181e+00	1.195507e+00	1.226860e+00	1.220757e+00	1.145556e+00	8.334940e-01	1.133848e+00	1.139960e+00	1.226105e+00	1.227085e+00	1.532542e+00	1.224863e+00	1.115920e+00	1.226006e+00	1.147112e+00	1.227012e+00	1.267018e+00	1.369032