# vtk DataFile Version 3.0
vtk output
ASCII
DATASET UNSTRUCTURED_GRID
POINTS 409 double
1.000000e+00	1.260000e-03	0.0	1.000000e+00	-1.260000e-03	0.0	9.950500e-01	1.952590e-03	0.0	9.900994e-01	2.641093e-03	0.0	9.851482e-01	3.324453e-03	0.0	9.801965e-01	4.005063e-03	0.0	9.752443e-01	4.681514e-03	0.0	9.702915e-01	5.353698e-03	0.0	9.653381e-01	6.021791e-03	0.0	9.603842e-01	6.685876e-03	0.0	9.554298e-01	7.346507e-03	0.0	9.504749e-01	8.003004e-03	0.0	9.455195e-01	8.655984e-03	0.0	9.405636e-01	9.304964e-03	0.0	9.356073e-01	9.950593e-03	0.0	9.306504e-01	1.059216e-02	0.0	9.256931e-01	1.122975e-02	0.0	9.207352e-01	1.186373e-02	0.0	9.157769e-01	1.249407e-02	0.0	9.108182e-01	1.312129e-02	0.0	9.058590e-01	1.374493e-02	0.0	9.008994e-01	1.436481e-02	0.0	8.959394e-01	1.498144e-02	0.0	8.909789e-01	1.559445e-02	0.0	8.860180e-01	1.620378e-02	0.0	8.810566e-01	1.680987e-02	0.0	8.760949e-01	1.741248e-02	0.0	8.711327e-01	1.801158e-02	0.0	8.661702e-01	1.860759e-02	0.0	8.612072e-01	1.920025e-02	0.0	8.562438e-01	1.978931e-02	0.0	8.512801e-01	2.037520e-02	0.0	8.463159e-01	2.095786e-02	0.0	8.413514e-01	2.153699e-02	0.0	8.363864e-01	2.211259e-02	0.0	8.314211e-01	2.268499e-02	0.0	8.264554e-01	2.325411e-02	0.0	8.214893e-01	2.381990e-02	0.0	8.165229e-01	2.438268e-02	0.0	8.115561e-01	2.494241e-02	0.0	8.065889e-01	2.549882e-02	0.0	8.016214e-01	2.605167e-02	0.0	7.966535e-01	2.660132e-02	0.0	7.916852e-01	2.714778e-02	0.0	7.867166e-01	2.769094e-02	0.0	7.817477e-01	2.823078e-02	0.0	7.767784e-01	2.876761e-02	0.0	7.718087e-01	2.930131e-02	0.0	7.668387e-01	2.983164e-02	0.0	7.618683e-01	3.035843e-02	0.0	7.568976e-01	3.088194e-02	0.0	7.519266e-01	3.140224e-02	0.0	7.469552e-01	3.191925e-02	0.0	7.419834e-01	3.243294e-02	0.0	7.370114e-01	3.294360e-02	0.0	7.320390e-01	3.345117e-02	0.0	7.270663e-01	3.395544e-02	0.0	7.220932e-01	3.445615e-02	0.0	7.171198e-01	3.495336e-02	0.0	7.121460e-01	3.544732e-02	0.0	7.071719e-01	3.593791e-02	0.0	7.021975e-01	3.642504e-02	0.0	6.972228e-01	3.690864e-02	0.0	6.922477e-01	3.738902e-02	0.0	6.872723e-01	3.786606e-02	0.0	6.822966e-01	3.833957e-02	0.0	6.773205e-01	3.880936e-02	0.0	6.723440e-01	3.927554e-02	0.0	6.673673e-01	3.973828e-02	0.0	6.623902e-01	4.019748e-02	0.0	6.574128e-01	4.065300e-02	0.0	6.524351e-01	4.110480e-02	0.0	6.474570e-01	4.155318e-02	0.0	6.424786e-01	4.199803e-02	0.0	6.374999e-01	4.243911e-02	0.0	6.325208e-01	4.287618e-02	0.0	6.275414e-01	4.330922e-02	0.0	6.225617e-01	4.373852e-02	0.0	6.175816e-01	4.416395e-02	0.0	6.126012e-01	4.458538e-02	0.0	6.076204e-01	4.500264e-02	0.0	6.026393e-01	4.541593e-02	0.0	5.976579e-01	4.582533e-02	0.0	5.926761e-01	4.623065e-02	0.0	5.876940e-01	4.663172e-02	0.0	5.827116e-01	4.702836e-02	0.0	5.777288e-01	4.742091e-02	0.0	5.727457e-01	4.780931e-02	0.0	5.677623e-01	4.819333e-02	0.0	5.627785e-01	4.857272e-02	0.0	5.577943e-01	4.894735e-02	0.0	5.528098e-01	4.931755e-02	0.0	5.478250e-01	4.968322e-02	0.0	5.428399e-01	5.004416e-02	0.0	5.378543e-01	5.040019e-02	0.0	5.328685e-01	5.075125e-02	0.0	5.278823e-01	5.109765e-02	0.0	5.228957e-01	5.143920e-02	0.0	5.179089e-01	5.177566e-02	0.0	5.129216e-01	5.210680e-02	0.0	5.079340e-01	5.243264e-02	0.0	5.029461e-01	5.275347e-02	0.0	4.979579e-01	5.306903e-02	0.0	4.929693e-01	5.337904e-02	0.0	4.879804e-01	5.368324e-02	0.0	4.829911e-01	5.398173e-02	0.0	4.780014e-01	5.427469e-02	0.0	4.730115e-01	5.456190e-02	0.0	4.680212e-01	5.484310e-02	0.0	4.630305e-01	5.511805e-02	0.0	4.580396e-01	5.538700e-02	0.0	4.530483e-01	5.564997e-02	0.0	4.480567e-01	5.590667e-02	0.0	4.430647e-01	5.615681e-02	0.0	4.380724e-01	5.640014e-02	0.0	4.330798e-01	5.663698e-02	0.0	4.280869e-01	5.686723e-02	0.0	4.230937e-01	5.709061e-02	0.0	4.181002e-01	5.730683e-02	0.0	4.131063e-01	5.751569e-02	0.0	4.081122e-01	5.771751e-02	0.0	4.031178e-01	5.791210e-02	0.0	3.981230e-01	5.809916e-02	0.0	3.931280e-01	5.827839e-02	0.0	3.881328e-01	5.844975e-02	0.0	3.831372e-01	5.861347e-02	0.0	3.781414e-01	5.876923e-02	0.0	3.731454e-01	5.891666e-02	0.0	3.681491e-01	5.905540e-02	0.0	3.631526e-01	5.918558e-02	0.0	3.581559e-01	5.930724e-02	0.0	3.531589e-01	5.942002e-02	0.0	3.481618e-01	5.952358e-02	0.0	3.431645e-01	5.961763e-02	0.0	3.381670e-01	5.970242e-02	0.0	3.331693e-01	5.977770e-02	0.0	3.281715e-01	5.984312e-02	0.0	3.231736e-01	5.989830e-02	0.0	3.181756e-01	5.994313e-02	0.0	3.131775e-01	5.997770e-02	0.0	3.081794e-01	6.000167e-02	0.0	3.031812e-01	6.001466e-02	0.0	2.981830e-01	6.001633e-02	0.0	2.931847e-01	6.000681e-02	0.0	2.881866e-01	5.998581e-02	0.0	2.831885e-01	5.995296e-02	0.0	2.781905e-01	5.990781e-02	0.0	2.731926e-01	5.985034e-02	0.0	2.681949e-01	5.978040e-02	0.0	2.631973e-01	5.969749e-02	0.0	2.582001e-01	5.960106e-02	0.0	2.532031e-01	5.949073e-02	0.0	2.482064e-01	5.936646e-02	0.0	2.432101e-01	5.922791e-02	0.0	2.382142e-01	5.907469e-02	0.0	2.332189e-01	5.890645e-02	0.0	2.282240e-01	5.872300e-02	0.0	2.232298e-01	5.852386e-02	0.0	2.182362e-01	5.830842e-02	0.0	2.132434e-01	5.807611e-02	0.0	2.082514e-01	5.782668e-02	0.0	2.032603e-01	5.755966e-02	0.0	1.982703e-01	5.727453e-02	0.0	1.932813e-01	5.697072e-02	0.0	1.882935e-01	5.664778e-02	0.0	1.833071e-01	5.630510e-02	0.0	1.783221e-01	5.594194e-02	0.0	1.733387e-01	5.555760e-02	0.0	1.683570e-01	5.515147e-02	0.0	1.633772e-01	5.472279e-02	0.0	1.583995e-01	5.427070e-02	0.0	1.534240e-01	5.379428e-02	0.0	1.484510e-01	5.329273e-02	0.0	1.434807e-01	5.276520e-02	0.0	1.385134e-01	5.221065e-02	0.0	1.335493e-01	5.162786e-02	0.0	1.285887e-01	5.101577e-02	0.0	1.236320e-01	5.037317e-02	0.0	1.186795e-01	4.969850e-02	0.0	1.137317e-01	4.899020e-02	0.0	1.087892e-01	4.824654e-02	0.0	1.038524e-01	4.746533e-02	0.0	9.892201e-02	4.664478e-02	0.0	9.399867e-02	4.578293e-02	0.0	8.908327e-02	4.487694e-02	0.0	8.417674e-02	4.392411e-02	0.0	7.928016e-02	4.292144e-02	0.0	7.439490e-02	4.186493e-02	0.0	6.952249e-02	4.075073e-02	0.0	6.466483e-02	3.957391e-02	0.0	5.982421e-02	3.832889e-02	0.0	5.500326e-02	3.700981e-02	0.0	5.020553e-02	3.560863e-02	0.0	4.543527e-02	3.411667e-02	0.0	4.069820e-02	3.252256e-02	0.0	3.600152e-02	3.081319e-02	0.0	3.135519e-02	2.897150e-02	0.0	2.677272e-02	2.697639e-02	0.0	2.227365e-02	2.480004e-02	0.0	1.788670e-02	2.240617e-02	0.0	1.365627e-02	1.974620e-02	0.0	9.654519e-03	1.675453e-02	0.0	6.005841e-03	1.334354e-02	0.0	2.927076e-03	9.414996e-03	0.0	7.803026e-04	4.916516e-03	0.0	2.529797e-16	-2.801396e-09	0.0	7.803043e-04	-4.916521e-03	0.0	2.927079e-03	-9.415000e-03	0.0	6.005845e-03	-1.334355e-02	0.0	9.654523e-03	-1.675453e-02	0.0	1.365628e-02	-1.974621e-02	0.0	1.788671e-02	-2.240618e-02	0.0	2.227366e-02	-2.480004e-02	0.0	2.677273e-02	-2.697640e-02	0.0	3.135519e-02	-2.897150e-02	0.0	3.600153e-02	-3.081319e-02	0.0	4.069820e-02	-3.252257e-02	0.0	4.543528e-02	-3.411667e-02	0.0	5.020553e-02	-3.560863e-02	0.0	5.500326e-02	-3.700981e-02	0.0	5.982422e-02	-3.832889e-02	0.0	6.466484e-02	-3.957391e-02	0.0	6.952250e-02	-4.075074e-02	0.0	7.439491e-02	-4.186493e-02	0.0	7.928016e-02	-4.292144e-02	0.0	8.417675e-02	-4.392411e-02	0.0	8.908328e-02	-4.487694e-02	0.0	9.399868e-02	-4.578294e-02	0.0	9.892201e-02	-4.664478e-02	0.0	1.038524e-01	-4.746533e-02	0.0	1.087892e-01	-4.824654e-02	0.0	1.137317e-01	-4.899020e-02	0.0	1.186795e-01	-4.969850e-02	0.0	1.236320e-01	-5.037317e-02	0.0	1.285887e-01	-5.101577e-02	0.0	1.335493e-01	-5.162786e-02	0.0	1.385134e-01	-5.221065e-02	0.0	1.434807e-01	-5.276520e-02	0.0	1.484510e-01	-5.329273e-02	0.0	1.534240e-01	-5.379428e-02	0.0	1.583995e-01	-5.427070e-02	0.0	1.633772e-01	-5.472279e-02	0.0	1.683570e-01	-5.515147e-02	0.0	1.733387e-01	-5.555760e-02	0.0	1.783221e-01	-5.594194e-02	0.0	1.833071e-01	-5.630510e-02	0.0	1.882935e-01	-5.664778e-02	0.0	1.932813e-01	-5.697072e-02	0.0	1.982703e-01	-5.727453e-02	0.0	2.032603e-01	-5.755966e-02	0.0	2.082514e-01	-5.782668e-02	0.0	2.132434e-01	-5.807611e-02	0.0	2.182362e-01	-5.830842e-02	0.0	2.232298e-01	-5.852386e-02	0.0	2.282240e-01	-5.872300e-02	0.0	2.332189e-01	-5.890645e-02	0.0	2.382142e-01	-5.907469e-02	0.0	2.432101e-01	-5.922791e-02	0.0	2.482064e-01	-5.936646e-02	0.0	2.532031e-01	-5.949073e-02	0.0	2.582001e-01	-5.960106e-02	0.0	2.631973e-01	-5.969749e-02	0.0	2.681949e-01	-5.978040e-02	0.0	2.731926e-01	-5.985034e-02	0.0	2.781905e-01	-5.990781e-02	0.0	2.831885e-01	-5.995296e-02	0.0	2.881866e-01	-5.998581e-02	0.0	2.931848e-01	-6.000681e-02	0.0	2.981830e-01	-6.001633e-02	0.0	3.031812e-01	-6.001466e-02	0.0	3.081794e-01	-6.000167e-02	0.0	3.131775e-01	-5.997770e-02	0.0	3.181756e-01	-5.994313e-02	0.0	3.231736e-01	-5.989830e-02	0.0	3.281715e-01	-5.984312e-02	0.0	3.331693e-01	-5.977770e-02	0.0	3.381670e-01	-5.970242e-02	0.0	3.431645e-01	-5.961763e-02	0.0	3.481618e-01	-5.952358e-02	0.0	3.531589e-01	-5.942002e-02	0.0	3.581559e-01	-5.930724e-02	0.0	3.631526e-01	-5.918558e-02	0.0	3.681491e-01	-5.905540e-02	0.0	3.731454e-01	-5.891666e-02	0.0	3.781415e-01	-5.876923e-02	0.0	3.831372e-01	-5.861347e-02	0.0	3.881328e-01	-5.844975e-02	0.0	3.931280e-01	-5.827839e-02	0.0	3.981230e-01	-5.809916e-02	0.0	4.031178e-01	-5.791210e-02	0.0	4.081122e-01	-5.771751e-02	0.0	4.131063e-01	-5.751569e-02	0.0	4.181002e-01	-5.730682e-02	0.0	4.230937e-01	-5.709061e-02	0.0	4.280869e-01	-5.686723e-02	0.0	4.330798e-01	-5.663698e-02	0.0	4.380724e-01	-5.640014e-02	0.0	4.430647e-01	-5.615681e-02	0.0	4.480567e-01	-5.590667e-02	0.0	4.530483e-01	-5.564997e-02	0.0	4.580396e-01	-5.538700e-02	0.0	4.630305e-01	-5.511805e-02	0.0	4.680212e-01	-5.484310e-02	0.0	4.730115e-01	-5.456190e-02	0.0	4.780014e-01	-5.427469e-02	0.0	4.829911e-01	-5.398173e-02	0.0	4.879804e-01	-5.368324e-02	0.0	4.929693e-01	-5.337904e-02	0.0	4.979579e-01	-5.306903e-02	0.0	5.029461e-01	-5.275347e-02	0.0	5.079341e-01	-5.243264e-02	0.0	5.129216e-01	-5.210680e-02	0.0	5.179089e-01	-5.177566e-02	0.0	5.228957e-01	-5.143920e-02	0.0	5.278823e-01	-5.109765e-02	0.0	5.328685e-01	-5.075125e-02	0.0	5.378543e-01	-5.040019e-02	0.0	5.428399e-01	-5.004416e-02	0.0	5.478250e-01	-4.968322e-02	0.0	5.528098e-01	-4.931755e-02	0.0	5.577943e-01	-4.894735e-02	0.0	5.627785e-01	-4.857272e-02	0.0	5.677623e-01	-4.819333e-02	0.0	5.727457e-01	-4.780931e-02	0.0	5.777288e-01	-4.742091e-02	0.0	5.827116e-01	-4.702836e-02	0.0	5.876940e-01	-4.663172e-02	0.0	5.926761e-01	-4.623065e-02	0.0	5.976579e-01	-4.582533e-02	0.0	6.026393e-01	-4.541593e-02	0.0	6.076204e-01	-4.500264e-02	0.0	6.126012e-01	-4.458538e-02	0.0	6.175816e-01	-4.416395e-02	0.0	6.225617e-01	-4.373852e-02	0.0	6.275414e-01	-4.330922e-02	0.0	6.325208e-01	-4.287618e-02	0.0	6.374999e-01	-4.243911e-02	0.0	6.424786e-01	-4.199803e-02	0.0	6.474570e-01	-4.155318e-02	0.0	6.524351e-01	-4.110480e-02	0.0	6.574128e-01	-4.065300e-02	0.0	6.623902e-01	-4.019748e-02	0.0	6.673673e-01	-3.973828e-02	0.0	6.723440e-01	-3.927554e-02	0.0	6.773205e-01	-3.880936e-02	0.0	6.822966e-01	-3.833957e-02	0.0	6.872723e-01	-3.786606e-02	0.0	6.922477e-01	-3.738902e-02	0.0	6.972228e-01	-3.690864e-02	0.0	7.021975e-01	-3.642504e-02	0.0	7.071719e-01	-3.593791e-02	0.0	7.121460e-01	-3.544732e-02	0.0	7.171198e-01	-3.495336e-02	0.0	7.220932e-01	-3.445615e-02	0.0	7.270663e-01	-3.395544e-02	0.0	7.320390e-01	-3.345117e-02	0.0	7.370114e-01	-3.294360e-02	0.0	7.419834e-01	-3.243294e-02	0.0	7.469552e-01	-3.191925e-02	0.0	7.519266e-01	-3.140224e-02	0.0	7.568976e-01	-3.088194e-02	0.0	7.618683e-01	-3.035843e-02	0.0	7.668387e-01	-2.983164e-02	0.0	7.718087e-01	-2.930131e-02	0.0	7.767784e-01	-2.876761e-02	0.0	7.817477e-01	-2.823078e-02	0.0	7.867166e-01	-2.769094e-02	0.0	7.916853e-01	-2.714778e-02	0.0	7.966535e-01	-2.660132e-02	0.0	8.016214e-01	-2.605167e-02	0.0	8.065889e-01	-2.549882e-02	0.0	8.115561e-01	-2.494241e-02	0.0	8.165229e-01	-2.438268e-02	0.0	8.214893e-01	-2.381990e-02	0.0	8.264554e-01	-2.325411e-02	0.0	8.314211e-01	-2.268499e-02	0.0	8.363864e-01	-2.211259e-02	0.0	8.413514e-01	-2.153699e-02	0.0	8.463159e-01	-2.095786e-02	0.0	8.512801e-01	-2.037520e-02	0.0	8.562438e-01	-1.978931e-02	0.0	8.612072e-01	-1.920025e-02	0.0	8.661702e-01	-1.860759e-02	0.0	8.711327e-01	-1.801158e-02	0.0	8.760949e-01	-1.741248e-02	0.0	8.810566e-01	-1.680987e-02	0.0	8.860180e-01	-1.620378e-02	0.0	8.909789e-01	-1.559445e-02	0.0	8.959394e-01	-1.498144e-02	0.0	9.008994e-01	-1.436481e-02	0.0	9.058590e-01	-1.374493e-02	0.0	9.108182e-01	-1.312129e-02	0.0	9.157769e-01	-1.249407e-02	0.0	9.207352e-01	-1.186373e-02	0.0	9.256931e-01	-1.122975e-02	0.0	9.306504e-01	-1.059216e-02	0.0	9.356073e-01	-9.950593e-03	0.0	9.405636e-01	-9.304964e-03	0.0	9.455195e-01	-8.655984e-03	0.0	9.504749e-01	-8.003004e-03	0.0	9.554298e-01	-7.346507e-03	0.0	9.603842e-01	-6.685876e-03	0.0	9.653381e-01	-6.021791e-03	0.0	9.702915e-01	-5.353698e-03	0.0	9.752443e-01	-4.681514e-03	0.0	9.801965e-01	-4.005063e-03	0.0	9.851482e-01	-3.324453e-03	0.0	9.900994e-01	-2.641093e-03	0.0	9.950500e-01	-1.952590e-03	0.0	
CELLS 409	1227
2	0	2	2	2	3	2	3	4	2	4	5	2	5	6	2	6	7	2	7	8	2	8	9	2	9	10	2	10	11	2	11	12	2	12	13	2	13	14	2	14	15	2	15	16	2	16	17	2	17	18	2	18	19	2	19	20	2	20	21	2	21	22	2	22	23	2	23	24	2	24	25	2	25	26	2	26	27	2	27	28	2	28	29	2	29	30	2	30	31	2	31	32	2	32	33	2	33	34	2	34	35	2	35	36	2	36	37	2	37	38	2	38	39	2	39	40	2	40	41	2	41	42	2	42	43	2	43	44	2	44	45	2	45	46	2	46	47	2	47	48	2	48	49	2	49	50	2	50	51	2	51	52	2	52	53	2	53	54	2	54	55	2	55	56	2	56	57	2	57	58	2	58	59	2	59	60	2	60	61	2	61	62	2	62	63	2	63	64	2	64	65	2	65	66	2	66	67	2	67	68	2	68	69	2	69	70	2	70	71	2	71	72	2	72	73	2	73	74	2	74	75	2	75	76	2	76	77	2	77	78	2	78	79	2	79	80	2	80	81	2	81	82	2	82	83	2	83	84	2	84	85	2	85	86	2	86	87	2	87	88	2	88	89	2	89	90	2	90	91	2	91	92	2	92	93	2	93	94	2	94	95	2	95	96	2	96	97	2	97	98	2	98	99	2	99	100	2	100	101	2	101	102	2	102	103	2	103	104	2	104	105	2	105	106	2	106	107	2	107	108	2	108	109	2	109	110	2	110	111	2	111	112	2	112	113	2	113	114	2	114	115	2	115	116	2	116	117	2	117	118	2	118	119	2	119	120	2	120	121	2	121	122	2	122	123	2	123	124	2	124	125	2	125	126	2	126	127	2	127	128	2	128	129	2	129	130	2	130	131	2	131	132	2	132	133	2	133	134	2	134	135	2	135	136	2	136	137	2	137	138	2	138	139	2	139	140	2	140	141	2	141	142	2	142	143	2	143	144	2	144	145	2	145	146	2	146	147	2	147	148	2	148	149	2	149	150	2	150	151	2	151	152	2	152	153	2	153	154	2	154	155	2	155	156	2	156	157	2	157	158	2	158	159	2	159	160	2	160	161	2	161	162	2	162	163	2	163	164	2	164	165	2	165	166	2	166	167	2	167	168	2	168	169	2	169	170	2	170	171	2	171	172	2	172	173	2	173	174	2	174	175	2	175	176	2	176	177	2	177	178	2	178	179	2	179	180	2	180	181	2	181	182	2	182	183	2	183	184	2	184	185	2	185	186	2	186	187	2	187	188	2	188	189	2	189	190	2	190	191	2	191	192	2	192	193	2	193	194	2	194	195	2	195	196	2	196	197	2	197	198	2	198	199	2	199	200	2	200	201	2	201	202	2	202	203	2	203	204	2	204	205	2	205	206	2	206	207	2	207	208	2	208	209	2	209	210	2	210	211	2	211	212	2	212	213	2	213	214	2	214	215	2	215	216	2	216	217	2	217	218	2	218	219	2	219	220	2	220	221	2	221	222	2	222	223	2	223	224	2	224	225	2	225	226	2	226	227	2	227	228	2	228	229	2	229	230	2	230	231	2	231	232	2	232	233	2	233	234	2	234	235	2	235	236	2	236	237	2	237	238	2	238	239	2	239	240	2	240	241	2	241	242	2	242	243	2	243	244	2	244	245	2	245	246	2	246	247	2	247	248	2	248	249	2	249	250	2	250	251	2	251	252	2	252	253	2	253	254	2	254	255	2	255	256	2	256	257	2	257	258	2	258	259	2	259	260	2	260	261	2	261	262	2	262	263	2	263	264	2	264	265	2	265	266	2	266	267	2	267	268	2	268	269	2	269	270	2	270	271	2	271	272	2	272	273	2	273	274	2	274	275	2	275	276	2	276	277	2	277	278	2	278	279	2	279	280	2	280	281	2	281	282	2	282	283	2	283	284	2	284	285	2	285	286	2	286	287	2	287	288	2	288	289	2	289	290	2	290	291	2	291	292	2	292	293	2	293	294	2	294	295	2	295	296	2	296	297	2	297	298	2	298	299	2	299	300	2	300	301	2	301	302	2	302	303	2	303	304	2	304	305	2	305	306	2	306	307	2	307	308	2	308	309	2	309	310	2	310	311	2	311	312	2	312	313	2	313	314	2	314	315	2	315	316	2	316	317	2	317	318	2	318	319	2	319	320	2	320	321	2	321	322	2	322	323	2	323	324	2	324	325	2	325	326	2	326	327	2	327	328	2	328	329	2	329	330	2	330	331	2	331	332	2	332	333	2	333	334	2	334	335	2	335	336	2	336	337	2	337	338	2	338	339	2	339	340	2	340	341	2	341	342	2	342	343	2	343	344	2	344	345	2	345	346	2	346	347	2	347	348	2	348	349	2	349	350	2	350	351	2	351	352	2	352	353	2	353	354	2	354	355	2	355	356	2	356	357	2	357	358	2	358	359	2	359	360	2	360	361	2	361	362	2	362	363	2	363	364	2	364	365	2	365	366	2	366	367	2	367	368	2	368	369	2	369	370	2	370	371	2	371	372	2	372	373	2	373	374	2	374	375	2	375	376	2	376	377	2	377	378	2	378	379	2	379	380	2	380	381	2	381	382	2	382	383	2	383	384	2	384	385	2	385	386	2	386	387	2	387	388	2	388	389	2	389	390	2	390	391	2	391	392	2	392	393	2	393	394	2	394	395	2	395	396	2	396	397	2	397	398	2	398	399	2	399	400	2	400	401	2	401	402	2	402	403	2	403	404	2	404	405	2	405	406	2	406	407	2	407	408	2	408	1	2	1	0	
CELL_TYPES 409
3	3	3	3	3	3	3	3	3	3	3	3	3	3	3	3	3	3	3	3	3	3	3	3	3	3	3	3	3	3	3	3	3	3	3	3	3	3	3	3	3	3	3	3	3	3	3	3	3	3	3	3	3	3	3	3	3	3	3	3	3	3	3	3	3	3	3	3	3	3	3	3	3	3	3	3	3	3	3	3	3	3	3	3	3	3	3	3	3	3	3	3	3	3	3	3	3	3	3	3	3	3	3	3	3	3	3	3	3	3	3	3	3	3	3	3	3	3	3	3	3	3	3	3	3	3	3	3	3	3	3	3	3	3	3	3	3	3	3	3	3	3	3	3	3	3	3	3	3	3	3	3	3	3	3	3	3	3	3	3	3	3	3	3	3	3	3	3	3	3	3	3	3	3	3	3	3	3	3	3	3	3	3	3	3	3	3	3	3	3	3	3	3	3	3	3	3	3	3	3	3	3	3	3	3	3	3	3	3	3	3	3	3	3	3	3	3	3	3	3	3	3	3	3	3	3	3	3	3	3	3	3	3	3	3	3	3	3	3	3	3	3	3	3	3	3	3	3	3	3	3	3	3	3	3	3	3	3	3	3	3	3	3	3	3	3	3	3	3	3	3	3	3	3	3	3	3	3	3	3	3	3	3	3	3	3	3	3	3	3	3	3	3	3	3	3	3	3	3	3	3	3	3	3	3	3	3	3	3	3	3	3	3	3	3	3	3	3	3	3	3	3	3	3	3	3	3	3	3	3	3	3	3	3	3	3	3	3	3	3	3	3	3	3	3	3	3	3	3	3	3	3	3	3	3	3	3	3	3	3	3	3	3	3	3	3	3	3	3	3	3	3	3	3	3	3	3	3	3	3	3	3	3	3	3	3	3	3	3	3	3	3	3	3	3	3	3	3	3	3	3	3	3	3	3	3	3	3	3	
POINT_DATA 409

SCALARS Density double 1
LOOKUP_TABLE default
1.154976e+00	1.167687e+00	1.300592e+00	1.289306e+00	1.281018e+00	1.274057e+00	1.267713e+00	1.262659e+00	1.257830e+00	1.253203e+00	1.248395e+00	1.243971e+00	1.239801e+00	1.235978e+00	1.232472e+00	1.229276e+00	1.226027e+00	1.223099e+00	1.220163e+00	1.216911e+00	1.214602e+00	1.211737e+00	1.208958e+00	1.206310e+00	1.203797e+00	1.201451e+00	1.198993e+00	1.196630e+00	1.194315e+00	1.191854e+00	1.189553e+00	1.187221e+00	1.184798e+00	1.182353e+00	1.180678e+00	1.178331e+00	1.175941e+00	1.173492e+00	1.171158e+00	1.169173e+00	1.167083e+00	1.165044e+00	1.163003e+00	1.161115e+00	1.159361e+00	1.157472e+00	1.155551e+00	1.153499e+00	1.151648e+00	1.149758e+00	1.147975e+00	1.146140e+00	1.144404e+00	1.142483e+00	1.140615e+00	1.138774e+00	1.137195e+00	1.135445e+00	1.133781e+00	1.132050e+00	1.130316e+00	1.128570e+00	1.127038e+00	1.125385e+00	1.124003e+00	1.122446e+00	1.120660e+00	1.119080e+00	1.117678e+00	1.116185e+00	1.114713e+00	1.113039e+00	1.111419e+00	1.109684e+00	1.108075e+00	1.106319e+00	1.104508e+00	1.102205e+00	1.099466e+00	1.095393e+00	1.089025e+00	1.077389e+00	1.057527e+00	1.027178e+00	9.932310e-01	9.328977e-01	8.790088e-01	8.488739e-01	8.402928e-01	8.359493e-01	8.324892e-01	8.299896e-01	8.278323e-01	8.256090e-01	8.246513e-01	8.228482e-01	8.212598e-01	8.203959e-01	8.195875e-01	8.189504e-01	8.182725e-01	8.176652e-01	8.172980e-01	8.171645e-01	8.173531e-01	8.174641e-01	8.174393e-01	8.177138e-01	8.179855e-01	8.181007e-01	8.182507e-01	8.184122e-01	8.186561e-01	8.189243e-01	8.193434e-01	8.197577e-01	8.203484e-01	8.209145e-01	8.213927e-01	8.219689e-01	8.224864e-01	8.230612e-01	8.238065e-01	8.247372e-01	8.260229e-01	8.274656e-01	8.285572e-01	8.296053e-01	8.308630e-01	8.317190e-01	8.326362e-01	8.336326e-01	8.343618e-01	8.358011e-01	8.368782e-01	8.379520e-01	8.392556e-01	8.402821e-01	8.413169e-01	8.422729e-01	8.431538e-01	8.440525e-01	8.451304e-01	8.463113e-01	8.473764e-01	8.485096e-01	8.498368e-01	8.512500e-01	8.526488e-01	8.548404e-01	8.570658e-01	8.585815e-01	8.610250e-01	8.635598e-01	8.654184e-01	8.677731e-01	8.707594e-01	8.728116e-01	8.756860e-01	8.780486e-01	8.805093e-01	8.845518e-01	8.869384e-01	8.893454e-01	8.921285e-01	8.941003e-01	8.969159e-01	9.000090e-01	9.035473e-01	9.084469e-01	9.128813e-01	9.159666e-01	9.191485e-01	9.224573e-01	9.258222e-01	9.298330e-01	9.334149e-01	9.368166e-01	9.413964e-01	9.473038e-01	9.534654e-01	9.597939e-01	9.664886e-01	9.725463e-01	9.779829e-01	9.857410e-01	9.937959e-01	1.002705e+00	1.012868e+00	1.024838e+00	1.036298e+00	1.050749e+00	1.067680e+00	1.084582e+00	1.102397e+00	1.119818e+00	1.137871e+00	1.168772e+00	1.197622e+00	1.241048e+00	1.298034e+00	1.359586e+00	1.453920e+00	1.554074e+00	1.640911e+00	1.673352e+00	1.645029e+00	1.588508e+00	1.525360e+00	1.456667e+00	1.394905e+00	1.350097e+00	1.312655e+00	1.281034e+00	1.252732e+00	1.232342e+00	1.212827e+00	1.199315e+00	1.186048e+00	1.169341e+00	1.157187e+00	1.148312e+00	1.136960e+00	1.125996e+00	1.119169e+00	1.111202e+00	1.101897e+00	1.095536e+00	1.088539e+00	1.083209e+00	1.077176e+00	1.071673e+00	1.066507e+00	1.061964e+00	1.056739e+00	1.051777e+00	1.048189e+00	1.043569e+00	1.039923e+00	1.035707e+00	1.032064e+00	1.028555e+00	1.024716e+00	1.021438e+00	1.019315e+00	1.016835e+00	1.015025e+00	1.013165e+00	1.011537e+00	1.009936e+00	1.008185e+00	1.006809e+00	1.005760e+00	1.003202e+00	1.001990e+00	1.000895e+00	9.989512e-01	9.976066e-01	9.961131e-01	9.948789e-01	9.938738e-01	9.926422e-01	9.919103e-01	9.913736e-01	9.901549e-01	9.896556e-01	9.888753e-01	9.885042e-01	9.884191e-01	9.884162e-01	9.884336e-01	9.884512e-01	9.887912e-01	9.895590e-01	9.911551e-01	9.920572e-01	9.921007e-01	9.944764e-01	9.969371e-01	9.980806e-01	9.997865e-01	1.002040e+00	1.003130e+00	1.005536e+00	1.008680e+00	1.010777e+00	1.013310e+00	1.015614e+00	1.017745e+00	1.020391e+00	1.022951e+00	1.024975e+00	1.027858e+00	1.031158e+00	1.033574e+00	1.035831e+00	1.038615e+00	1.040884e+00	1.043138e+00	1.045627e+00	1.047997e+00	1.050222e+00	1.052229e+00	1.054475e+00	1.056629e+00	1.058846e+00	1.061026e+00	1.063321e+00	1.065511e+00	1.067798e+00	1.070295e+00	1.072605e+00	1.074541e+00	1.076444e+00	1.078543e+00	1.080831e+00	1.082923e+00	1.084645e+00	1.086542e+00	1.088928e+00	1.091080e+00	1.092766e+00	1.094402e+00	1.096227e+00	1.097968e+00	1.099711e+00	1.101476e+00	1.103438e+00	1.105377e+00	1.107556e+00	1.109542e+00	1.111446e+00	1.113587e+00	1.115350e+00	1.116284e+00	1.118385e+00	1.120463e+00	1.121936e+00	1.123853e+00	1.125934e+00	1.127420e+00	1.129399e+00	1.130786e+00	1.132598e+00	1.134412e+00	1.135975e+00	1.137455e+00	1.139372e+00	1.141253e+00	1.143012e+00	1.144900e+00	1.146546e+00	1.148301e+00	1.149826e+00	1.151517e+00	1.153454e+00	1.155177e+00	1.156609e+00	1.158392e+00	1.160025e+00	1.161674e+00	1.163452e+00	1.165174e+00	1.167275e+00	1.169138e+00	1.171102e+00	1.173113e+00	1.174924e+00	1.176518e+00	1.178490e+00	1.180430e+00	1.182295e+00	1.184065e+00	1.185930e+00	1.187702e+00	1.189775e+00	1.192084e+00	1.194097e+00	1.195922e+00	1.198162e+00	1.200226e+00	1.202546e+00	1.204758e+00	1.207072e+00	1.209246e+00	1.211593e+00	1.214058e+00	1.216627e+00	1.219235e+00	1.221477e+00	1.224077e+00	1.226770e+00	1.229702e+00	1.232497e+00	1.235316e+00	1.238170e+00	1.241552e+00	1.245225e+00	1.248655e+00	1.252510e+00	1.257411e+00	1.260197e+00	1.264930e+00	1.270245e+00	1.275594e+00	1.281279e+00	1.287587e+00	1.295023e+00	1.304682e+00	
VECTORS Momentum double